12
Properties=species:S:1:pos:R:3:molID:I:1:momenta:R:3:force_mace:R:3:forces_xtb:R:3 Nmols=1 Comp=DMC(1) energy_mace=-589.7070498162693 energy_xtb=-589.6902849308997 pbc="F F F"
C       -0.06354920       0.02615914       0.03273994        0       0.17844136      -0.34376020       1.07719402      -1.14006568      -1.65813162      -2.45227952      -1.10480465      -1.74935772      -2.56668991
O       -1.09745824      -0.56171083      -0.33384407        0      -0.37132631       0.01130763       0.61994678       1.71326201       1.23893420       2.87775031       1.82966510       1.39045630       2.85528675
O        0.59339279       0.04178514       1.16893291        0      -0.06068457      -0.59711980      -0.95669715      -0.73193646       0.35464510       0.56840846      -0.82852780       0.42618089       0.49198597
O        0.70731479       0.58054012      -0.92796504        0      -0.60590825       0.76431855      -0.46687405      -0.29857633      -0.57573352      -0.16180195      -0.37199226      -0.70811741      -0.28837154
C       -0.18480919      -0.38314587       2.27627182        0      -0.04014364      -0.06563936      -0.56096274      -0.55359599       1.08982763       1.23642895      -0.57910020       1.05533883       1.25905931
C        0.11790480       0.31317315      -2.18905210        0       0.29358387      -0.58416592       0.23783068      -1.76053598       1.38257517      -1.80799918      -1.94280044       1.45788527      -1.67289732
H        0.50081283      -0.52887988       3.16355896        0       0.01339961       0.14254610       0.22731550      -0.87906124      -0.17224282      -1.23684239      -0.82243213      -0.17215393      -1.20744938
H       -0.99130619       0.37122315       2.57026887        0      -0.01864405       0.28794111      -0.37432648       1.19934262      -0.21023719      -0.28567548       1.19574539      -0.26180058      -0.29331200
H       -0.79898220      -1.19689691       1.93909299        0       0.07867573      -0.13808167       0.14732151       0.15317789      -1.06141989       0.18737402       0.14298628      -1.04896365       0.29163103
H        0.82173383       0.39293513      -3.04121518        0       0.06493475       0.18520010      -0.03584277      -0.18295684      -0.20459330       0.87171089      -0.07668032      -0.15544425       0.93178879
H       -0.51975018      -0.63449883      -2.23208618        0       0.25642326       0.05312722       0.01555753       1.32923661       1.02279262       0.07785305       1.35192819       0.97979173       0.12089941
H       -0.68493521       1.15580308      -2.35394812        0       0.21124824       0.28432625       0.06953715       1.15170939      -1.20641638       0.12507283       1.20601285      -1.21381549       0.07806889
12
Properties=species:S:1:pos:R:3:molID:I:1:momenta:R:3:force_mace:R:3:forces_xtb:R:3 Nmols=1 Comp=DMC(1) energy_mace=-590.0756167070722 energy_xtb=-590.048064555222 pbc="F F F"
C       -0.06771900      -0.03176816      -0.00286220        0       0.38206245      -0.65977533      -1.26748365       2.96105598       1.51874156      -0.28449008       2.95386416       1.53179413      -0.07035884
O       -1.08801080      -0.54018208      -0.20967886        0      -0.50257113      -0.34707430       2.75466780      -3.35665457      -1.67570175      -0.29315199      -3.33771792      -1.65656474      -0.38034528
O        0.58490588      -0.00122875       1.13987219        0      -0.66109974      -0.91671441       0.28609450       0.73444868      -0.14383968       0.45753436       0.68733571       0.01182950       0.38995389
O        0.65986946       0.60566868      -0.94051324        0      -0.43001436       0.54865735       0.18497045       0.36252262      -0.25070693       0.53948282       0.41552460      -0.38089948       0.48819802
C       -0.22254937      -0.37747627       2.25036565        0      -0.39176138       0.07961959      -0.51131344       0.47679308       1.06754605       0.17250855       0.44091049       0.95904377       0.25398090
C        0.15617858       0.35737606      -2.21798591        0       0.75437732       1.11845691      -0.98202088      -0.20387509       0.09678860      -1.68299700      -0.27320415       0.12006668      -1.60006517
H        0.43646577      -0.46129151       3.11515877        0       0.42608658       0.06080700       0.03766901       0.00609980       0.19471990      -0.06574923       0.05825854       0.16383507      -0.07163389
H       -0.87980196       0.51174981       2.35430518        0      -0.10597659       0.15243924      -0.04556889      -0.35631999      -1.05545281       0.57153172      -0.33409170      -1.07916953       0.45237233
H       -0.65806177      -1.35186627       2.07319272        0      -0.00922926       0.05577657      -0.04674151      -0.64262355       0.04206696      -0.07326162      -0.63387990       0.12100680      -0.06302499
H        0.95360676       0.45092963      -2.96714288        0       0.40855150       0.06738988      -0.01462875       0.10006330       0.27319917       0.34236407       0.17246630       0.22548981       0.38444181
H       -0.16993026      -0.72256150      -2.30829371        0       0.26355585      -0.02938732      -0.06700625      -0.38392531       1.22286572       0.22331635      -0.38639647       1.34844842       0.11329791
H       -0.58911341       1.17696807      -2.45623622        0      -0.13398124      -0.13019519      -0.32863840       0.30241505      -1.29022678       0.09291205       0.23693034      -1.36488044       0.10318330
12
Properties=species:S:1:pos:R:3:molID:I:1:momenta:R:3:force_mace:R:3:forces_xtb:R:3 Nmols=1 Comp=DMC(1) energy_mace=-589.6255352100782 energy_xtb=-589.5850939441092 pbc="F F F"
C       -0.03029924      -0.07152525      -0.07769071        0      -0.29128452      -0.52595805      -0.32158766      -2.80449810      -0.89356622       2.75179005      -2.95011607      -0.88453241       2.95536096
O       -1.15134582      -0.57997388      -0.09605866        0      -0.59989267      -0.81209614       0.60643133       1.59789381       0.75812134      -1.90325062       1.74397347       0.86716332      -1.83264754
O        0.57571368      -0.07289328       1.12994834        0      -0.03969184      -1.14901367      -0.46394690       0.87272514       0.67321614      -0.54178268       0.87199129       0.89720991      -0.59679938
O        0.65069773       0.63122641      -0.91876606        0      -0.01146769       0.77607520       0.07510445      -0.69386030      -0.07148240      -1.15661833      -0.61578542      -0.20949341      -1.17583533
C       -0.22599662      -0.34458426       2.22187674        0      -0.58215514       0.10084076      -0.20482040      -1.96548463       0.38312646       1.21030754      -2.10187085       0.13115111       1.05455113
C        0.24577595       0.45548979      -2.30167081        0       1.60763779       1.01905456      -0.63259375      -0.29560492      -1.37638968       0.80956540      -0.43302764      -1.37028118       0.77746076
H        0.42245487      -0.38197709       3.05022988        0       0.06016613      -0.02984238       0.48441452       0.84990922      -0.58503429       0.90654281       0.88299553      -0.57240439       0.93594242
H       -1.00853017       0.39647564       2.54514568        0      -0.20637570       0.02383425       0.16822089       0.73576739       0.41163507      -0.96137629       0.74878750       0.43921732      -0.96063098
H       -0.88877119      -1.20552132       2.11599530        0      -0.12906405       0.15813120       0.04172711       0.56626076      -0.67265119      -0.23754784       0.63939059      -0.62355696      -0.20147317
H        1.16537846       0.84519106      -2.73982422        0       0.10734849       0.57613331       0.13012071      -0.67873825      -0.48564012      -1.02405584      -0.59175108      -0.57510748      -0.90315244
H       -0.09455369      -0.64080088      -2.37556721        0       0.16969378      -0.08533315      -0.11298389       1.25583469       0.98782632      -0.25572572       1.31427287       1.09447597      -0.46574516
H       -0.70004462       0.92186023      -2.60655569        0      -0.08491458      -0.05182589       0.22991358       0.55979518       0.87083857       0.40215151       0.49113981       0.80615820       0.41296873
12
Properties=species:S:1:pos:R:3:molID:I:1:momenta:R:3:force_mace:R:3:forces_xtb:R:3 Nmols=1 Comp=DMC(1) energy_mace=-589.6940071994859 energy_xtb=-589.629446710731 pbc="F F F"
C       -0.10727760      -0.10859413      -0.00897497        0      -0.59880337       0.22743836       1.34499584       1.79673955       1.57110405      -1.11004256       1.79351992       1.59444498      -0.95903981
O       -1.16948067      -0.59964880      -0.14075255        0      -0.49685531       0.31383438      -1.70693670      -1.11928769      -0.44962991      -0.90061000      -1.08834803      -0.37829014      -0.95051306
O        0.59564454      -0.13046082       1.10780877        0       0.48239122      -1.02975199      -0.10361748      -0.61912395      -0.11107749       1.25539368      -0.68182538       0.10922281       1.15057040
O        0.60794045       0.67902134      -0.92534586        0      -1.03158780       0.45805693       0.14026944       0.25852841      -1.30239296       1.75093327       0.30992134      -1.45644130       2.04589311
C       -0.28616032      -0.35126264       2.26832151        0      -0.53196363      -0.57331811       0.25914909      -0.38899426      -1.59004293      -2.26225875      -0.36769073      -1.67803373      -2.19884632
C        0.36907859       0.51989116      -2.28160257        0       1.12081320       0.52934179       0.52203609      -0.34683681      -0.62161899      -1.13979387      -0.40009969      -0.62573072      -1.17964328
H        0.34929007      -0.53222356       3.06423690        0       0.29844691      -0.24318081       0.26722474       1.27306338       0.42574132       1.70516137       1.23484687       0.36658626       1.64815336
H       -0.94086526       0.51133923       2.32216920        0       0.02331112       0.25223299      -0.30808250      -0.18353036      -0.26900985       0.43955444      -0.16382737      -0.30001920       0.33436159
H       -0.81500473      -1.37157117       2.14842629        0       0.10713974      -0.07982649      -0.00731004       0.15639263       1.59603555      -0.24622696       0.19468092       1.65765725      -0.19803133
H        1.04644839       1.12575627      -2.86739039        0      -0.06322343       0.31158862      -0.19956111       0.23443406       0.75599940       0.35288277       0.32906053       0.75460432       0.33013034
H        0.68618667      -0.52571989      -2.68507432        0       0.61893667       0.12212613      -0.21964947      -1.41880380       1.07280394       1.01336398      -1.50557122       1.18548067       0.85775313
H       -0.65126966       0.95860645      -2.39449010        0       0.07139467      -0.28854179       0.01148210       0.35741883      -1.07791215      -0.85835737       0.34533285      -1.22948120      -0.88078811
12
Properties=species:S:1:pos:R:3:molID:I:1:momenta:R:3:force_mace:R:3:forces_xtb:R:3 Nmols=1 Comp=DMC(1) energy_mace=-589.7051599839696 energy_xtb=-589.6698855944477 pbc="F F F"
C       -0.11541855      -0.05118196       0.00446143        0      -0.11334643       0.47326256      -0.90501963      -1.42505771      -1.82566501      -1.00596424      -1.69102867      -1.80479573      -0.90676929
O       -1.19435748      -0.60219774      -0.23455540        0       0.17245487      -0.13242324      -0.91046180       2.20108225       1.21016677       0.82776324       2.25446579       1.22973240       0.81038211
O        0.61697817      -0.19757989       1.13910912        0      -0.01861166      -0.81553010       0.87195313      -1.48437070       0.25324366      -0.15852296      -1.41974772       0.54408609      -0.23566479
O        0.53451557       0.70223292      -0.86467902        0      -1.08509917       0.73198617       1.75671366       0.62065141       0.45413406      -0.63538630       0.74573852      -0.00052242      -0.28040485
C       -0.26058789      -0.38180785       2.28040446        0       0.59508386      -0.73399246      -0.57791652      -2.52697208      -0.71859313      -4.18323957      -2.41134037      -0.82862346      -3.85260231
C        0.43956152       0.55457196      -2.29763810        0       0.46410239       0.26957502      -0.44695667      -0.76765202      -2.43938749       0.39466389      -0.91071519      -2.30937169       0.31971885
H        0.29661888      -0.42916068       3.10171192        0      -0.01330796       0.11649246       0.30590512       2.52195744      -0.79934090       3.32453394       2.37078344      -0.69348387       3.12290637
H       -0.86162973       0.52151817       2.35505397        0      -0.07862058       0.23054684       0.07396873      -0.62131069      -0.00677539       0.02080993      -0.50405561      -0.08833688      -0.04709275
H       -0.91268296      -1.32024302       2.06485264        0      -0.22942964       0.23844599      -0.01410733       0.92301963       1.49594103       0.68216987       0.90901378       1.50899716       0.59707971
H        0.98058597       1.42369311      -2.63522050        0      -0.16572326       0.21751470       0.20153896      -0.22660549      -0.20859455      -0.46344467      -0.16216416      -0.12733055      -0.52577269
H        0.88037161      -0.47084978      -2.61866068        0       0.32246442      -0.18445252       0.00922021       0.02209296       1.65931645       0.62108586       0.02798516       1.66087294       0.54946233
H       -0.62191816       0.40057151      -2.64932612        0       0.15003316      -0.41142542      -0.36483787       0.76316501       0.92555450       0.57553100       0.79106503       0.90877601       0.44875732
12
Properties=species:S:1:pos:R:3:molID:I:1:momenta:R:3:force_mace:R:3:forces_xtb:R:3 Nmols=1 Comp=DMC(1) energy_mace=-589.6954554488115 energy_xtb=-589.6218343938916 pbc="F F F"
C       -0.14491358      -0.06868302      -0.05744637        0       0.34822661      -0.12493223      -0.24982686       2.75659763       0.21447797       2.34283264       2.71332288       0.31823408       2.43138988
O       -1.16481271      -0.57772048      -0.26594420        0       0.14303337       0.18756777      -0.36789008      -2.66083955      -1.47682477      -0.50038475      -2.79706635      -1.51925799      -0.51538907
O        0.58816734      -0.24025735       1.15016553        0      -0.55361762      -0.45773691      -0.39423800      -0.50810187       0.13384038      -1.77623819      -0.50206385       0.47823221      -2.03318140
O        0.50325368       0.75583065      -0.80957266        0      -0.33507642       1.19471508      -0.40166575       1.07401838       1.07032184      -1.68904301       1.29084405       0.58277070      -1.36306246
C       -0.24563518      -0.41586248       2.23690112        0      -0.50722107      -0.41828757      -0.54780067      -2.36918354      -1.16238640      -1.39084273      -2.44097336      -1.29269277      -1.17169243
C        0.48904391       0.53570614      -2.24598719        0       0.76886469      -0.16845216       1.68165397      -0.62451606       0.82566754       0.15841777      -0.75966599       0.97989201       0.07181105
H        0.25923995      -0.59886281       3.10613612        0       0.18291039      -0.41186623      -0.05662003       1.76623840      -0.68759495       1.92985304       1.67782386      -0.63769870       1.86941463
H       -0.84055996       0.43332635       2.37072638        0       0.10994418       0.10928798       0.03758426      -0.94943333       1.94814621       0.43158338      -0.83941316       1.91231492       0.36794322
H       -1.05047410      -1.19526790       2.09669856        0      -0.11422717      -0.15992589      -0.05126876       0.90928510      -0.02531519      -0.13242259       0.98964576      -0.01696353      -0.17713293
H        0.67694873       1.52493279      -2.70283779        0      -0.28503253       0.14329811      -0.02656203       0.68835179      -0.41626198       0.35256195       0.63725034      -0.40061824       0.31490100
H        1.30075662      -0.20463865      -2.43543584        0       0.61808142       0.18273408      -0.01469787      -1.07154287       0.45434155      -0.33949581      -1.03934547       0.46431147      -0.34103063
H       -0.56266489       0.36866589      -2.62151323        0      -0.37588586      -0.07640203       0.39133181       0.98912593      -0.87841219       0.61317830       1.06964129      -0.86852415       0.54602913
12
Properties=species:S:1:pos:R:3:molID:I:1:momenta:R:3:force_mace:R:3:forces_xtb:R:3 Nmols=1 Comp=DMC(1) energy_mace=-589.372731423063 energy_xtb=-589.2404105269123 pbc="F F F"
C       -0.07354862      -0.07070847      -0.01104827        0       0.67165852      -0.09867115       0.52513225      -3.98546194      -0.34844253      -2.95528934      -4.22012990      -0.56796175      -2.87472927
O       -1.18249659      -0.57979970      -0.31482951        0       0.00698572       0.01382618      -0.85414826       3.20672846       1.34288914       0.90694646       3.23871732       1.36142140       0.69634686
O        0.53445179      -0.27156410       1.09321715        0      -1.23484185      -0.44083345      -0.93037310       0.72641765       0.15872018       1.46620896       0.55401978       0.73171357       1.37060060
O        0.54702325       0.82869633      -0.83421178        0       1.91947950       0.99592378       0.75160884       0.36884076      -0.29861387       3.51946335       0.74392037      -0.65284349       3.97953102
C       -0.33616551      -0.43977801       2.24387044        0      -0.60881647      -0.29005658       0.40464952       0.56425569      -1.66136913      -2.44811978       0.62403509      -1.83244608      -2.28949147
C        0.50690849       0.54456205      -2.14523532        0      -0.36228499       0.57999788       1.04743615      -1.50821150       0.66837741      -0.94829591      -1.43342800       0.89161916      -1.31155024
H        0.32711293      -0.87144848       2.88432911        0      -0.14803816       0.00330407      -0.31878401       1.93747152      -0.87426150       2.64025994       1.87909318      -0.82465066       2.51237519
H       -0.65724471       0.49337162       2.54828825        0       0.03695943      -0.13848767       0.22411962      -1.26224747       1.55665996       0.57334101      -1.15814512       1.47458165       0.49502089
H       -1.00969745      -1.26399752       2.02741971        0      -0.23013884      -0.01033465      -0.13270201      -0.99019602       0.53534244      -0.25092473      -0.93783402       0.56502717      -0.20502523
H        0.57152026       1.48766708      -2.63190659        0      -0.31866824       0.15140792      -0.26131327      -0.92939278       0.97721368      -0.77473838      -1.06275486       1.05698727      -0.82412878
H        1.35647747       0.11153286      -2.50527679        0       0.02142452      -0.02148809      -0.20138916       2.51243877      -1.95165578      -0.63470159       2.67435848      -2.04905405      -0.55709502
H       -0.34135185      -0.08465304      -2.29077180        0       0.24628087      -0.74458825      -0.25423657      -0.64064315      -0.10486000      -1.09415000      -0.90185233      -0.15439420      -0.99185455
12
Properties=species:S:1:pos:R:3:molID:I:1:momenta:R:3:force_mace:R:3:forces_xtb:R:3 Nmols=1 Comp=DMC(1) energy_mace=-589.3263376018753 energy_xtb=-589.2111431347279 pbc="F F F"
C       -0.11914253      -0.09766321      -0.06801902        0      -0.03668254       1.01160192      -0.49706888       4.47611626       3.65461882       1.98843300       4.50975651       3.65995532       2.16568405
O       -1.12032912      -0.54601005      -0.37954732        0       0.07570330       0.15861775      -1.73487916      -4.03741766      -1.91394827      -1.98886284      -4.29171749      -2.01502338      -2.03207078
O        0.46282268      -0.29134573       1.11879920        0      -1.00916994       0.18835479       1.53144697       0.44431074       0.39117726       0.65241660       0.45090163       0.90690883       0.30203866
O        0.64134794       0.86904345      -0.74529653        0       0.62940821      -0.33092496       1.58500570      -2.19712097      -2.57205737      -0.93239575      -2.05075169      -2.86571199      -0.83839664
C       -0.35154084      -0.49798280       2.25684242        0       0.22272625      -1.16917266       0.37673174      -0.86635205       0.52040099      -1.00542122      -0.91450492       0.27300106      -0.83847994
C        0.49768525       0.55878999      -2.17724684        0       0.62465962      -0.26664799      -1.13035615       1.29891947       1.62620075       1.90392194       1.35222227       1.69140170       1.84928651
H        0.26740440      -0.92539299       2.96216507        0      -0.61638510      -0.10235443      -0.03047025       1.16804193      -1.32765176       1.27298842       1.13384670      -1.35520276       1.35934113
H       -0.79938357       0.34539634       2.73291323        0       0.02991053      -0.14913822      -0.13452025       0.26957115       1.62200522      -0.13372493       0.36095946       1.78186768      -0.04868150
H       -1.25543337      -1.01907365       2.04855946        0       0.03843717       0.08542743       0.08765716      -0.39008367      -1.28747977      -0.57516203      -0.42880345      -1.44883538      -0.56549688
H        0.13338789       1.38885753      -2.70197992        0      -0.27787601       0.01210902      -0.15046876       0.16935447       1.69694784      -0.54335270       0.18432896       1.67385190      -0.59039863
H        1.45437310       0.20882150      -2.39511780        0       0.14635957       0.48074276       0.11120030       1.84528769      -0.00242513      -1.02573977       1.91648577       0.07820900      -1.06332516
H       -0.11353067      -0.18874500      -2.50290288        0       0.17290894       0.08138459      -0.01427842      -2.18062735      -2.40778858       0.38689928      -2.22272374      -2.38042199       0.30049920
12
Properties=species:S:1:pos:R:3:molID:I:1:momenta:R:3:force_mace:R:3:forces_xtb:R:3 Nmols=1 Comp=DMC(1) energy_mace=-589.2904365142817 energy_xtb=-589.2578581900714 pbc="F F F"
C       -0.07940085      -0.02380984      -0.03014638        0      -0.58017742      -0.17390722       0.37928066      -4.60180930      -3.68038070      -0.00771408      -4.83612232      -3.79902705      -0.10160676
O       -1.12308415      -0.56912588      -0.51509087        0       0.76121123      -0.07476384      -1.91835272       2.95254759       1.35057668       2.49851873       3.11611084       1.31411098       2.32260963
O        0.44718268      -0.29108319       1.20188921        0       0.52228310       0.06135076       1.04867453       1.09267322      -0.30220984      -1.54243254       1.14775421       0.12658284      -1.75045749
O        0.59845618       0.78836382      -0.71489470        0      -0.67801227      -1.64652416      -0.84712332       2.61888685       2.11212811      -2.26690183       2.76889927       1.69943506      -2.19054882
C       -0.38246324      -0.54895518       2.29463317        0      -0.43926318      -0.30623028       1.17671405      -0.70104906       1.35622191       0.50799995      -0.79676798       1.17842883       0.66959742
C        0.56088542       0.63607537      -2.22901160        0       0.71043249       1.36146058       0.19782415      -0.92693195      -1.17940712       3.77853904      -0.64953495      -0.81009418       3.53437144
H        0.02970614      -1.06471284       3.18030938        0      -0.42304939       0.37883117      -0.33546151       0.61994804       0.24931407      -0.78707604       0.64850740       0.23379307      -0.90675445
H       -0.61984121       0.49831052       2.57138118        0       0.04450638      -0.26738506      -0.03945754      -0.72391647      -0.69633711       0.67014982      -0.70852526      -0.61662557       0.69779710
H       -1.24003115      -1.11607536       1.98579411        0       0.16303632      -0.12693174      -0.03109825      -0.71186033      -0.11442337      -0.22961613      -0.69424885      -0.10156601      -0.19986732
H        0.15640795       1.49946664      -2.59478361        0      -0.21727261       0.17749711       0.32136058      -1.82405216       2.03256772      -0.85415429      -1.89984694       2.01209659      -0.83980702
H        1.52267542       0.67814529      -2.60427836        0      -0.37931092       0.24613115      -0.16061615       2.08710480      -0.81048172      -0.37390467       2.16501337      -0.78694557      -0.25906423
H       -0.01680415      -0.26029348      -2.28726857        0       0.51561628       0.37047153       0.20825552       0.11845879      -0.31756863      -1.39340795      -0.26123878      -0.45018901      -0.97626951
12
Properties=species:S:1:pos:R:3:molID:I:1:momenta:R:3:force_mace:R:3:forces_xtb:R:3 Nmols=1 Comp=DMC(1) energy_mace=-589.1825802306208 energy_xtb=-589.1294510759852 pbc="F F F"
C       -0.18710967      -0.08626363       0.00217175        0       0.24400831      -0.60045731      -0.08055182       5.29628544       1.27220883       0.05758584       5.51532370       1.46197239      -0.26918243
O       -1.04839758      -0.60603417      -0.56958331        0      -0.62758622      -1.63432694      -0.63869130      -3.21464212      -1.95586304       0.29986603      -3.45623017      -2.12476044       0.38117040
O        0.50257241      -0.29221886       1.22173984        0       0.39275923      -0.11156067      -0.04208719      -3.77533271       0.42029437      -0.52898005      -3.46083736       0.65065445      -0.76438177
O        0.61950264       0.73902666      -0.78220969        0       1.84956956      -0.15214587      -0.53318049       1.62479208      -0.10962307       2.73210693       1.69302201      -0.54950431       3.40993167
C       -0.44673207      -0.53229624       2.32223284        0      -0.61512200       0.23261207       0.67334354       0.49369411       0.10188993       1.06975155       0.24661624       0.08848939       0.86861485
C        0.58089366       0.78144967      -2.15343195        0      -0.74969107       1.43708129       0.60923648      -3.38005569      -2.16944196      -0.86231863      -3.33510765      -1.99938903      -1.11223181
H        0.05854418      -1.12297945       3.17467072        0      -0.08550853       0.15958536      -0.46299897      -0.52294794       0.96764739      -1.54137710      -0.47421026       0.93989416      -1.53369212
H       -0.89964121       0.42018339       2.77539083        0      -0.28617729      -0.29235558      -0.00302760       1.14380109      -0.95397848      -0.92286368       1.06916918      -0.89110606      -0.73758081
H       -1.31784860      -1.09263944       1.96523068        0      -0.03607136       0.30984218       0.21159265       0.34487439      -0.13819785      -0.18630389       0.32202417      -0.17467059      -0.09642862
H       -0.12296955       1.56401637      -2.29931355        0       0.04350106      -0.30146016       0.23950118       0.00060739       1.30319929      -1.13044520      -0.13184707       1.33724604      -1.23017913
H        1.50756339       0.81453278      -2.65243616        0      -0.22172189       0.20375641       0.31279873       1.08360267       0.51258871       0.04162309       1.08537042       0.45155663       0.03804053
H        0.00110007      -0.11639578      -2.63960334        0       0.09204020       0.74942923      -0.28593520       0.90532131       0.74927588       0.97135513       0.92670681       0.80961736       1.04591925
12
Properties=species:S:1:pos:R:3:molID:I:1:momenta:R:3:force_mace:R:3:forces_xtb:R:3 Nmols=1 Comp=DMC(1) energy_mace=-589.5978740079343 energy_xtb=-589.6079518567898 pbc="F F F"
C       -0.07976268      -0.13381118      -0.05220167        0       1.20801973      -1.03035461      -1.23048419      -1.76987511      -1.24891813      -0.90692849      -1.76991800      -1.09630183      -1.17011160
O       -1.07417758      -0.72220282      -0.54394387        0       0.93411194      -1.04313072       1.66667867       3.41996991       2.22634792       1.77612808       3.36313130       2.14204181       1.89112224
O        0.41491786      -0.26774997       1.20720636        0      -2.18342225       0.35245229      -0.23631596      -0.44193899       0.42364390      -1.24467473      -0.49350724       0.57396452      -1.06116014
O        0.74804115       0.71759163      -0.73455165        0       1.51977539      -0.84222042       1.29440031      -2.20271753      -1.71900975       0.18657158      -2.25504746      -1.80028676       0.27556016
C       -0.48659877      -0.51780763       2.28580175        0      -0.24278223      -0.35952970      -1.13267882       0.50641780       0.01549651       0.47471990       0.46594534      -0.11115774       0.38394588
C        0.46984861       0.88499038      -2.13737452        0      -1.15092741       2.14265526      -0.74003494       0.29591916       1.81897454      -0.37742367       0.33298409       1.77285112      -0.43977642
H        0.15081492      -1.12750673       3.02183141        0      -0.19619514       0.31020609      -0.16091343      -1.28546659       1.04921187      -0.86844515      -1.16795053       0.95784026      -0.78687772
H       -0.81403361       0.50464200       2.71318939        0       0.26326299       0.27581208      -0.00499154       0.33006692      -1.80718899      -0.51615415       0.35852185      -1.66569776      -0.45165977
H       -1.32586057      -1.11712728       1.87559515        0       0.12224837      -0.04044372       0.20132664       0.27901285       0.46589317       0.60341514       0.24882634       0.40983744       0.58583354