24
Lattice="6.85982935 0.0 0.0 0.0 7.12835549 0.0 0.0 0.0 7.98357277" Properties=species:S:1:pos:R:3:forces:R:3:magmoms:R:1 bandgap=1.3285999999999998 e_per_atom_relaxed=-4.536662329583334 mp_id=mp-560602 energy_per_atom=-4.52070509375 ef_per_atom_relaxed=-4.536662329583334 corrected_total_energy=-108.49692225 ef_per_atom=0.42725037500000046 task_id=mp-560602 calc_id=0 ionic_step=49 mace_descriptors pretrained=T config_weight=1.0 head=pbe_mp energy=-108.49692225 stress="-0.0002139506129036133 -0.0 -0.0 -0.0 -0.00040616173744631895 -0.0 -0.0 -0.0 -0.00015185502449693467" pbc="T T T"
O        5.19499541       2.58744784       0.02538680      -0.01227980       0.00483301       0.01355428       0.00000000
O        3.06117209       6.69122962       5.57684955       0.02536471       0.01722426      -0.02279017       0.00000000
O        1.76508074       0.97672991       7.95818597      -0.01227980      -0.00483301      -0.01355428       0.00000000
O        5.09474861       4.54090765       4.01717319       0.01227980      -0.00483301       0.01355428       0.00000000
O        1.76508074       2.58744784       3.96639958      -0.01227980       0.00483301      -0.01355428       0.00000000
O        1.06750558       1.33500533       0.98943603       0.00699962      -0.00018720      -0.01740337       0.00000000
O        4.49742026       1.33500533       3.00235036       0.00699962      -0.00018720       0.01740337       0.00000000
O        0.36874258       0.43712587       1.58506317      -0.02536471      -0.01722426      -0.02279017       0.00000000
O        6.49108677       4.00130362       2.40672322       0.02536471      -0.01722426       0.02279017       0.00000000
O        0.36874258       3.12705187       5.57684955      -0.02536471       0.01722426      -0.02279017       0.00000000
O        3.79865726       0.43712587       2.40672322      -0.02536471      -0.01722426       0.02279017       0.00000000
O        5.19499541       0.97672991       4.01717319      -0.01227980      -0.00483301       0.01355428       0.00000000
O        1.66483394       4.54090765       7.95818597       0.01227980      -0.00483301      -0.01355428       0.00000000
O        6.49108677       6.69122962       6.39850960       0.02536471       0.01722426       0.02279017       0.00000000
O        3.06117209       4.00130362       1.58506317       0.02536471      -0.01722426      -0.02279017       0.00000000
O        4.49742026       2.22917241       6.99413674       0.00699962       0.00018720       0.01740337       0.00000000
O        2.36240909       5.79335016       4.98122241      -0.00699962       0.00018720      -0.01740337       0.00000000
O        5.09474861       6.15162558       0.02538680       0.01227980       0.00483301       0.01355428       0.00000000
O        5.79232377       4.89918308       3.00235036      -0.00699962      -0.00018720       0.01740337       0.00000000
O        1.06750558       2.22917241       4.98122241       0.00699962       0.00018720      -0.01740337       0.00000000
O        1.66483394       6.15162558       3.96639958       0.01227980       0.00483301      -0.01355428       0.00000000
O        3.79865726       3.12705187       6.39850960      -0.02536471       0.01722426       0.02279017       0.00000000
O        5.79232377       5.79335016       6.99413674      -0.00699962       0.00018720       0.01740337       0.00000000
O        2.36240909       4.89918308       0.98943603      -0.00699962      -0.00018720      -0.01740337       0.00000000
2
Lattice="-1.69047698 1.69047698 2.06005186 1.69047698 -1.69047698 2.06005186 1.69047698 1.69047698 -2.06005186" Properties=species:S:1:pos:R:3:forces:R:3:magmoms:R:1 bandgap=9.0854 e_per_atom_relaxed=-3.39133986 mp_id=mp-632291 energy_per_atom=-3.390685285 ef_per_atom_relaxed=-3.39133986 corrected_total_energy=-6.78137057 ef_per_atom=0.002030565000000095 task_id=mp-690695 calc_id=0 ionic_step=2 mace_descriptors pretrained=T config_weight=1.0 head=pbe_mp energy=-6.78137057 stress="-0.0012349360141156293 -0.0 -0.0 -0.0 -0.0012349360141156293 -0.0 -0.0 -0.0 -0.0009050302701808093" pbc="T T T"
H        0.00000000       0.00000000       3.74499147       0.00000000       0.00000000       0.00711994       0.00000000
H        0.00000000       0.00000000       0.37511225       0.00000000       0.00000000      -0.00711994       0.00000000
10
Lattice="2.793684 4.379423 0.0 -2.793684 4.379423 0.0 0.0 4.377009 4.378221" Properties=species:S:1:pos:R:3:forces:R:3:magmoms:R:1 bandgap=2.8521 e_per_atom_relaxed=-7.242741561000001 mp_id=mp-675784 energy_per_atom=-7.239851452999999 ef_per_atom_relaxed=-7.242741561000001 corrected_total_energy=-72.39851453 ef_per_atom=-0.8914181675000005 task_id=mp-721647 calc_id=0 ionic_step=0 mace_descriptors pretrained=T config_weight=1.0 head=pbe_mp energy=-69.65051453 stress="-0.00494156240155767 -0.0 -0.0 -0.0 -0.0008001545980366861 -0.00030938865513621656 -0.0 -0.00030938865513621656 -0.0012603240452926723" pbc="T T T"
H        0.00000000       6.53513989       1.99643813       0.00000000      -0.07722888      -0.00545875       0.00000000
H        0.00000000       2.40030468       2.17659317       0.00000000      -0.02686385      -0.04147200       0.00000000
C        0.00000000       9.20763138       3.41609818       0.00000000      -0.02343317       0.09666696       0.00000000
C        0.00000000       5.29242872       0.42686779       0.00000000      -0.18587948      -0.10544966       0.00000000
C        0.00000000       7.79408985       3.91567946       0.00000000       0.19348527       0.11374725       0.00000000
C        0.00000000       3.94155206       0.91109466       0.00000000       0.19528092      -0.12705351       0.00000000
O        0.00000000       9.74358974       2.28786127       0.00000000      -0.08861300      -0.01474716       0.00000000
O        0.00000000       6.65035398       3.41779693       0.00000000      -0.02768056      -0.08259264       0.00000000
O        0.00000000       6.47910499       0.92448326       0.00000000       0.11392398       0.06506987       0.00000000
O        0.00000000       3.47041935       2.10821411       0.00000000      -0.07299123       0.10128964       0.00000000
8
Lattice="7.19411796 0.0 0.0 0.0 7.21549679 0.0 0.0 0.0 7.17773918" Properties=species:S:1:pos:R:3:forces:R:3:magmoms:R:1 bandgap=9.721200000000001 e_per_atom_relaxed=-3.38842400875 mp_id=mp-730101 energy_per_atom=-3.38781566625 ef_per_atom_relaxed=-3.38842400875 corrected_total_energy=-27.10252533 ef_per_atom=0.004900183750000231 task_id=mp-1181188 calc_id=0 ionic_step=2 mace_descriptors pretrained=T config_weight=1.0 head=pbe_mp energy=-27.10252533 stress="0.0005975171698123933 -0.0 -0.0 -0.0 0.0005686079350884011 -0.0 -0.0 -0.0 0.0003611593768676218" pbc="T T T"
H        5.19571465       4.66683259       2.62419953      -0.03328535       0.03298951      -0.00423606      -0.00000000
H        5.59546229       2.54866420       6.21306912       0.03328535      -0.03298951      -0.00423606      -0.00000000
H        1.59865567       6.15641259       4.55353965      -0.03328535      -0.03298951       0.00423606      -0.00000000
H        1.99840331       1.05908420       0.96467006       0.03328535       0.03298951       0.00423606      -0.00000000
H        1.07031375       5.62656394       4.62670715       0.03251052       0.03420321      -0.00554930      -0.00000000
H        2.52674523       1.58893285       1.03783756      -0.03251052      -0.03420321      -0.00554930      -0.00000000
H        4.66737273       5.19668124       2.55103203       0.03251052      -0.03420321       0.00554930      -0.00000000
H        6.12380421       2.01881555       6.13990162      -0.03251052       0.03420321       0.00554930      -0.00000000
28
Lattice="6.073984 0.0 0.0 0.0 8.523852 0.0 0.0 1.354005 9.365351" Properties=species:S:1:pos:R:3:forces:R:3:magmoms:R:1 bandgap=1.6358000000000001 e_per_atom_relaxed=-7.727510333214285 mp_id=mp-731594 energy_per_atom=-7.724296225000001 ef_per_atom_relaxed=-7.727510333214285 corrected_total_energy=-216.2802943 ef_per_atom=1.502473594999999 task_id=mp-731594 calc_id=0 ionic_step=0 mace_descriptors pretrained=T config_weight=1.0 head=pbe_mp energy=-216.2802943 stress="-0.00028244849795276705 -0.0 -0.0 -0.0 -0.001346074528863828 -0.0004936505998977064 -0.0 -0.0004936505998977064 -0.0017203742297922813" pbc="T T T"
C        2.43045611       8.07703780       6.39587916       0.04982668       0.04433656       0.06079157      -0.00200000
C        5.46744811       1.80081920       2.96947184       0.04982668      -0.04433656      -0.06079157      -0.00200000
C        3.48216644       8.75713413       6.13778882       0.03798128       0.02313591       0.00587850       0.00100000
C        0.44517444       1.12072287       3.22756218       0.03798128      -0.02313591      -0.00587850       0.00100000
C        4.44854336       9.16874325       6.93631610       0.12997045       0.04316355      -0.08787529      -0.00200000
C        1.41155136       0.70911375       2.42903490       0.12997045      -0.04316355       0.08787529      -0.00200000
C        4.39426017       8.89290048       8.17794624      -0.12104680      -0.10001106      -0.03953472       0.00200000
C        1.35726817       0.98495652       1.18740476      -0.12104680       0.10001106       0.03953472       0.00200000
C        4.23759997       6.79176363       1.77345096      -0.14215631      -0.08514234      -0.00329598       0.00200000
C        1.20060797       3.08609337       7.59190004      -0.14215631       0.08514234       0.00329598       0.00200000
C        4.12557141       6.46338211       2.99858872       0.08613866       0.01229248       0.12544049      -0.00100000
C        1.08857941       3.41447489       6.36676228       0.08613866      -0.01229248      -0.12544049      -0.00100000
C        3.07957670       5.77925556       3.42377565       0.08428309       0.04254865      -0.00805461       0.00100000
C        0.04258470       4.09860144       5.94157535       0.08428309      -0.04254865       0.00805461       0.00100000
C        2.07101595       5.35755613       2.76074626       0.09202926       0.07975140      -0.00473618      -0.00100000
C        5.10800795       4.52030087       6.60460474       0.09202926      -0.07975140       0.00473618      -0.00100000
C        1.24021642       5.41187617       0.32283301      -0.03215215      -0.04691152       0.23063391       0.00000000
C        4.27720842       4.46598083       9.04251799      -0.03215215       0.04691152      -0.23063391       0.00000000
C        1.32254928       7.04145917       8.48416512      -0.00406257       0.07897110      -0.25424481       0.00000000
C        4.35954128       2.83639783       0.88118588      -0.00406257      -0.07897110       0.25424481       0.00000000
C        2.27729453       7.72978301       7.74640960      -0.07990683      -0.03542071       0.01710944       0.00000000
C        5.31428653       2.14807399       1.61894140      -0.07990683       0.03542071      -0.01710944       0.00000000
C        3.36749569       8.16694132       8.77229951      -0.02526265      -0.03150681       0.05029482       0.00000000
C        0.33050369       1.71091568       0.59305149      -0.02526265       0.03150681      -0.05029482       0.00000000
C        3.28526002       6.47021974       0.81009350      -0.01506701      -0.01880474      -0.03283266       0.00000000
C        0.24826802       3.40763726       8.55525750      -0.01506701       0.01880474       0.03283266       0.00000000
C        2.08470064       5.66559120       1.39405123      -0.06057508      -0.02507366      -0.04835106       0.00000000
C        5.12169264       4.21226580       7.97129977      -0.06057508       0.02507366       0.04835106       0.00000000
8
Lattice="2e-08 2.52566044 -0.0 -0.0022937 -0.0 4.151459 4.55834045 -1.26282965 -0.5595115" Properties=species:S:1:pos:R:3:forces:R:3:magmoms:R:1 bandgap=3.5848999999999993 e_per_atom_relaxed=-8.9277499925 mp_id=mp-1080826 energy_per_atom=-8.927954385 ef_per_atom_relaxed=-8.9277499925 corrected_total_energy=-71.42363508 ef_per_atom=0.29881543499999985 task_id=mp-1080826 calc_id=0 ionic_step=2 mace_descriptors pretrained=T config_weight=1.0 head=pbe_mp energy=-71.42363508 stress="-0.0007922804474366725 -8.113961863648236e-11 -0.0009342508937950918 -8.113961863648236e-11 0.0019450533852153936 -1.185886733917819e-10 -0.0009342508937950918 -1.185886733917819e-10 0.0008460936156483952" pbc="T T T"
C        0.51892102       0.00000007       3.58617134       0.03291332       0.00000000       0.03726184      -0.00000000
C        4.03712575       1.26283072       0.00577616      -0.03291332      -0.00000000      -0.03726184      -0.00000000
C        0.52799713       1.26283029       2.64856960       0.03163541       0.00000000       0.00378717      -0.00000000
C        4.02804964       0.00000050       0.94337790      -0.03163541      -0.00000000      -0.00378717      -0.00000000
C        1.95294683       0.00000024       0.00632768       0.02100999       0.00000000      -0.04895863      -0.00000000
C        2.60309994       1.26283055       3.58561982      -0.02100999      -0.00000000       0.04895863      -0.00000000
C        2.08394008       1.26283049       2.17514514      -0.01419291      -0.00000000      -0.05571272      -0.00000000
C        2.47210669       0.00000030       1.41680236       0.01419291       0.00000000       0.05571272      -0.00000000
4
Lattice="-0.03990549 0.0 2.47008219 -2.66886817 3.13466315 -0.03584828 -2.66886817 -3.13466315 -0.03584828" Properties=species:S:1:pos:R:3:forces:R:3:magmoms:R:1 bandgap=1.8023000000000002 e_per_atom_relaxed=-6.2964368325 mp_id=mp-995195 energy_per_atom=-6.30100563 ef_per_atom_relaxed=-6.2964368325 corrected_total_energy=-25.20402252 ef_per_atom=0.008737205000000081 task_id=mp-995195 calc_id=0 ionic_step=2 mace_descriptors pretrained=T config_weight=1.0 head=pbe_mp energy=-25.20402252 stress="-0.00031692857916404817 -0.0 0.0018498635990082724 -0.0 -0.00032524301205931065 -0.0 0.0018498635990082724 -0.0 4.352721734584932e-05" pbc="T T T"
H       -1.25670752       0.00000000       0.60616898      -0.02894669       0.00000000      -0.00907222      -0.00000000
H       -4.12093431       0.00000000       1.79221665       0.02894669       0.00000000       0.00907222      -0.00000000
C       -2.35298749       0.00000000       0.58762299       0.00524427       0.00000000      -0.06105009       0.00000000
C       -3.02465434       0.00000000       1.81076264      -0.00524427       0.00000000       0.06105009       0.00000000
72
Lattice="4.76227133 0.0 0.0 0.0 9.83520576 -2.80859223 0.0 0.01839461 15.86735982" Properties=species:S:1:pos:R:3:forces:R:3:magmoms:R:1 bandgap=2.526 e_per_atom_relaxed=-7.281974915277778 mp_id=mp-603334 energy_per_atom=-7.2806699040277785 ef_per_atom_relaxed=-7.281974915277778 corrected_total_energy=-524.20823309 ef_per_atom=0.0014152593055551204 task_id=mp-603334 calc_id=0 ionic_step=2 mace_descriptors pretrained=T config_weight=1.0 head=pbe_mp energy=-524.20823309 stress="-0.002680216952520395 -0.0 -0.0 -0.0 -0.0007598586786219069 -0.0008007394461663087 -0.0 -0.0008007394461663087 -0.00021691778265149427" pbc="T T T"
H        0.84587554       3.34481538       3.35753497       0.00025828       0.01886576      -0.01721736       0.00000000
H        2.22070455       0.66754155      11.84763473      -0.03724547      -0.01424185       0.06863147       0.00000000
H        4.13983747       8.34812165       8.04668780       0.02444815      -0.05912113       0.02064499       0.00000000
H        4.60184022       4.27765324      10.54910888      -0.03724547       0.01424185      -0.06863147       0.00000000
H        2.81145665       0.85985144       9.03014964       0.09308246      -0.07541666      -0.02258487       0.00000000
H        3.91639579       6.50878499       9.70123262      -0.00025828      -0.01886576       0.01721736       0.00000000
H        3.57983903       7.65732772       2.77470818       0.03231558      -0.03540711      -0.01199845       0.00000000
H        3.56356797       2.74892215      12.11268420      -0.03231558      -0.03540711      -0.01199845       0.00000000
H        0.41353859       9.27407379       6.01683169       0.02308386      -0.04256974      -0.04843511       0.00000000
H        1.75870180       6.43227891      11.54146358       0.02444815       0.05912113      -0.02064499       0.00000000
H        4.34873274       0.57952658       7.04193590      -0.02308386       0.04256974       0.04843511       0.00000000
H        2.54156678       9.18605882       1.21113286       0.03724547       0.01424185      -0.06863147       0.00000000
H        0.16043111       5.57594713       2.50965871       0.03724547      -0.01424185       0.06863147       0.00000000
H        0.43032098       4.08534335      13.36659397       0.09308246       0.07541666       0.02258487       0.00000000
H        1.18243230       2.19627265      10.28405941      -0.03231558       0.03540711       0.01199845       0.00000000
H        0.62243386       1.50547872       5.01207979      -0.02444815       0.05912113      -0.02064499       0.00000000
H        1.95081468       8.99374893       4.02861795      -0.09308246       0.07541666       0.02258487       0.00000000
H        1.53526013       8.27161556       9.88691877      -0.00025828       0.01886576      -0.01721736       0.00000000
H        1.19870336       7.10467822       0.94608339       0.03231558       0.03540711       0.01199845       0.00000000
H        1.96759707       4.34727360      -0.51255210      -0.02308386      -0.04256974      -0.04843511       0.00000000
H        2.79467426       5.50632677      13.57131969       0.02308386       0.04256974       0.04843511       0.00000000
H        3.22701120       1.58198481       3.17184882       0.00025828      -0.01886576       0.01721736       0.00000000
H        4.33195035       5.76825702      -0.30782638      -0.09308246      -0.07541666      -0.02258487       0.00000000
H        3.00356953       3.42132146       1.51730401      -0.02444815      -0.05912113       0.02064499       0.00000000
C        3.33953682       4.15857466       5.80727109       0.03929067      -0.02026345      -0.02465125       0.00000000
C        2.75786890       3.63135802       6.99953997      -0.02342662       0.01551027       0.01041863       0.00000000
C        0.68343199       8.26974473       6.35062095       0.06340531      -0.06573969       0.02450852       0.00000000
C        1.42273451       5.69502571       7.25149650      -0.03929067       0.02026345       0.02465125       0.00000000
C        0.37673324       1.31383678      15.39720364      -0.02342662      -0.01551027      -0.01041863       0.00000000
C        3.54162166       5.96711989       4.13737317      -0.04179677      -0.02242662      -0.02016856       0.00000000
C        4.38553809       8.53976359      -2.33843605       0.02342662       0.01551027       0.01041863       0.00000000
C        3.06456765       6.51065582      13.23753044       0.06340531       0.06573969      -0.02450852       0.00000000
C        0.26420977       4.67349089       9.62305844       0.09463456       0.07447093      -0.02715439       0.00000000
C        4.07883934       1.58385564       6.70814664      -0.06340531       0.06573969      -0.02450852       0.00000000
C        1.62984360       7.51661915       5.59496125       0.00585946       0.03417133       0.01858500       0.00000000
C        2.83990812       8.32031115      11.61619793       0.00539655      -0.02556428      -0.01010340       0.00000000
C        2.64534543       0.27170391      12.77368517       0.09463456      -0.07447093       0.02715439       0.00000000
C        3.80387018       9.08537484      12.33665488      -0.03929067      -0.02026345      -0.02465125       0.00000000
C        4.60006570       6.76003199      -0.67208706       0.07943667       0.04407499       0.01915806       0.00000000
C        1.92236321       1.53328922       1.44256966      -0.00539655       0.02556428       0.01010340       0.00000000
C        4.49806156       5.18010948       3.43570915      -0.09463456      -0.07447093       0.02715439       0.00000000
C        2.49196058       0.98740843       2.62787742      -0.07492771      -0.02056876       0.02553229       0.00000000
C        0.16220563       3.09356838      13.73085465      -0.07943667      -0.04407499      -0.01915806       0.00000000
C        2.11692590       9.58189646       0.28508242      -0.09463456       0.07447093      -0.02715439       0.00000000
C        0.95840115       0.76822553       0.72211271       0.03929067       0.02026345       0.02465125       0.00000000
C        0.75632141       7.50772018       0.03216401      -0.08423077      -0.06261722      -0.06672546       0.00000000
C        0.45877246       6.46008941       7.97195346       0.00539655       0.02556428       0.01010340       0.00000000
C        2.54334129       1.85162641       8.66588896      -0.07943667       0.04407499       0.01915806       0.00000000
C        2.21893004       8.00197396       4.39287863       0.07943667      -0.04407499      -0.01915806       0.00000000
C        3.13242773       2.33698122       7.46380634      -0.00585946      -0.03417133      -0.01858500       0.00000000
C        1.16048599       8.79488606      -0.41658161      -0.04179677       0.02242662       0.02016856       0.00000000
C        2.49168594       7.02430092      12.09577863       0.05002844      -0.01659217       0.03994608       0.00000000
C        2.27031075       8.86619194      10.43089017       0.07492771       0.02056876      -0.02553229       0.00000000
C        2.00440243       6.22224235       6.05922762       0.02342662      -0.01551027      -0.01041863       0.00000000
C        4.00594992       2.34588019      13.02660358       0.08423077       0.06261722       0.06672546       0.00000000
C        1.79885861       4.40219484       7.72476768       0.02808815       0.01808894      -0.04350547       0.00000000
C        3.60178534       1.05871431      13.47534920       0.04179677      -0.02242662      -0.02016856       0.00000000
C        0.58227706       9.31060042      -1.61320835      -0.02808815       0.01808894      -0.04350547       0.00000000
C        4.30349887       3.39351096       5.08681413      -0.00539655      -0.02556428      -0.01010340       0.00000000
C        4.01097926       7.24538680      -1.87416968       0.00585946      -0.03417133      -0.01858500       0.00000000
C        2.27058539       2.82929945       0.96298896      -0.05002844       0.01659217      -0.03994608       0.00000000
C        2.96341272       5.45140553       5.33399991      -0.02808815      -0.01808894       0.04350547       0.00000000
C        1.62481426       2.59931460       9.37014004       0.08423077      -0.06261722      -0.06672546       0.00000000
C        0.75129207       2.60821357      14.93293727      -0.00585946       0.03417133       0.01858500       0.00000000
C        0.11082491       3.93939176       3.90150637      -0.07492771       0.02056876      -0.02553229       0.00000000
C        1.22064967       3.88648048       8.92139442       0.04179677       0.02242662       0.02016856       0.00000000
C        4.17999427       0.54299995      14.67197594       0.02808815      -0.01808894       0.04350547       0.00000000
C        1.69770368       3.34294455      -0.17876285      -0.06340531      -0.06573969       0.02450852       0.00000000
C        3.13745707       7.25428577       3.68862755      -0.08423077       0.06261722       0.06672546       0.00000000
C        0.11055027       7.75609964       7.49237276       0.05002844       0.01659217      -0.03994608       0.00000000
C        4.65144642       5.91420861       9.15726122       0.07492771      -0.02056876       0.02553229       0.00000000
C        4.65172106       2.09750073       5.56639483      -0.05002844      -0.01659217       0.03994608       0.00000000
8
Lattice="3.03267 4.175663 0.0 -3.03267 4.175663 0.0 0.0 1.790508 3.856518" Properties=species:S:1:pos:R:3:forces:R:3:magmoms:R:1 bandgap=1.1346 e_per_atom_relaxed=-4.947961005 mp_id=mp-12957 energy_per_atom=-4.9285141475 ef_per_atom_relaxed=-4.947961005 corrected_total_energy=-39.42811318 ef_per_atom=0.01944132125000042 task_id=mp-974101 calc_id=0 ionic_step=0 mace_descriptors pretrained=T config_weight=1.0 head=pbe_mp energy=-39.42811318 stress="-0.0055420800582936585 -0.0 -0.0 -0.0 -0.004544494530424745 -0.002591760506358276 -0.0 -0.002591760506358276 -0.0028288763555524227" pbc="T T T"
O        0.00000000       1.55459336       0.56641837       0.00000000      -0.08334598      -0.09364096       0.00200000
O       -1.51740250       4.19191052       0.61554655      -0.09150239       0.04480140      -0.12382380      -0.00200000
O        0.00000000       3.31404495       3.19105654       0.00000000      -0.17190930       0.16105746       0.00200000
O       -1.51740250       5.94992348       3.24097145      -0.09150239      -0.04480140       0.12382380      -0.00200000
O        1.51740250       4.19191052       0.61554655       0.09150239       0.04480140      -0.12382380      -0.00200000
O        0.00000000       6.82778905       0.66546146       0.00000000       0.17190930      -0.16105746       0.00200000
O        1.51740250       5.94992348       3.24097145       0.09150239      -0.04480140       0.12382380      -0.00200000
O        0.00000000       8.58724064       3.29009963       0.00000000       0.08334598       0.09364096       0.00200000
2
Lattice="3.09010365 -0.01517423 -1.18331172 -1.60956099 2.87914438 -0.26275396 -0.05729489 -0.03240616 4.19419403" Properties=species:S:1:pos:R:3:forces:R:3:magmoms:R:1 bandgap=1.3257999999999999 e_per_atom_relaxed=-4.937990895 mp_id=mp-611836 energy_per_atom=-4.92216187 ef_per_atom_relaxed=-4.937990895 corrected_total_energy=-9.84432374 ef_per_atom=0.02579359874999998 task_id=mp-611836 calc_id=0 ionic_step=4 mace_descriptors pretrained=T config_weight=1.0 head=pbe_mp energy=-9.84432374 stress="-0.0035133473094803506 0.00046406426753921087 -0.0007781801043741706 0.00046406426753921087 -0.0021888995660471447 -0.0001849787383940336 -0.0007781801043741706 -0.0001849787383940336 -0.0030186882127795933" pbc="T T T"
O        0.27082038       0.13168721       0.53808708       0.00114351      -0.01134731      -0.02130286       0.81200000
O        1.15242739       2.69987678       2.21004127      -0.00114351       0.01134731       0.02130286       0.81200000
6
Lattice="3.413821 0.0 0.0 0.0 3.413821 0.0 0.0 0.0 3.381228" Properties=species:S:1:pos:R:3:forces:R:3:magmoms:R:1 bandgap=5.6008 e_per_atom_relaxed=-5.125281139999999 mp_id=mp-32959 energy_per_atom=-5.122395768333334 ef_per_atom_relaxed=-5.125281139999999 corrected_total_energy=-30.73437461 ef_per_atom=-1.2112667120833338 task_id=mp-722034 calc_id=0 ionic_step=0 mace_descriptors pretrained=T config_weight=1.0 head=pbe_mp energy=-29.36037461 stress="-0.001464869072192618 -0.0 -0.0 -0.0 -0.001464869072192618 -0.0 -0.0 -0.0 0.0018530289616369366" pbc="T T T"
H        1.15026309       1.15026309       1.10703433       0.01672905       0.01672905       0.00115609       0.00000000
H        2.26355791       2.26355791       1.10703433      -0.01672905      -0.01672905       0.00115609       0.00000000
H        0.55664741       2.85717359       2.79764833      -0.01672905       0.01672905       0.00115609       0.00000000
H        2.85717359       0.55664741       2.79764833       0.01672905      -0.01672905       0.00115609       0.00000000
O        0.00000000       0.00000000       0.01754181       0.00000000       0.00000000      -0.00231218       0.00000000
O        1.70691050       1.70691050       1.70815581       0.00000000       0.00000000      -0.00231218       0.00000000
106
Lattice="10.58756779 0.0 -0.00621469 0.0 7.33459887 0.0 -2.94428545 0.0 10.43137404" Properties=species:S:1:pos:R:3:forces:R:3:magmoms:R:1 bandgap=5.679 e_per_atom_relaxed=-5.628471717924528 mp_id=mp-866659 energy_per_atom=-5.628143494339622 ef_per_atom_relaxed=-5.628471717924528 corrected_total_energy=-596.5832104 ef_per_atom=-0.14397433433962328 task_id=mp-866659 calc_id=0 ionic_step=2 mace_descriptors pretrained=T config_weight=1.0 head=pbe_mp energy=-596.5832104 stress="-0.003925743503147241 -0.0 0.0004969382586561833 -0.0 0.00042815111086659047 -0.0 0.0004969382586561833 -0.0 0.00048648290074961503" pbc="T T T"
H        0.60338050       5.93205876      10.15389777      -0.03829212       0.02769970       0.05833717       0.00000000
H        7.03989890       2.26476666       0.27127201       0.03829212       0.02769970      -0.05833717       0.00000000
H       -0.56792602       4.63988074       9.83183314      -0.03988295       0.01949087       0.00561615       0.00000000
H        8.21121600       0.97257397       0.59333664       0.03988295       0.01949087      -0.00561615       0.00000000
H       -0.09555652       0.41784212       0.45943151      -0.08468548      -0.01789302       0.08826755       0.00000000
H        7.73884651       4.08514889       9.96573827       0.08468548      -0.01789302      -0.08826755       0.00000000
H       -1.56908911       0.58714043       9.92840149      -0.05249214      -0.08708118       0.05880465       0.00000000
H        9.21236381       4.25444720       0.49674743       0.05249214      -0.08708118      -0.05880465       0.00000000
H        0.65622677       2.30818272       2.02107687      -0.08707940      -0.01532127       0.07248001       0.00000000
H        6.98705263       5.97548215       8.40409291       0.08707940      -0.01532127      -0.07248001       0.00000000
H        1.94519522       2.47363102       0.82994339       0.01825445      -0.01586980       0.11806379       0.00000000
H        5.69808712       6.14093779       9.59521596      -0.01825445      -0.01586980      -0.11806379       0.00000000