12
Properties=species:S:1:pos:R:3:molID:I:1:momenta:R:3:forces:R:3 Nmols=1 Comp=DMC(1) energy=-589.5968627929688 free_energy=-589.5968627929688 stress="1.0172410839004442e-05 4.936477466799261e-07 5.988973043713486e-06 4.936477466799261e-07 3.47720356330683e-06 4.037621238239808e-06 5.988973043713486e-06 4.037621238239808e-06 1.0538506103330292e-06" pbc="F F F"
C       -0.06354920       0.02615914       0.03273994        0      -0.19797246       0.67103070      -0.28990963      -1.11113906      -1.66851687      -2.55902910
O       -1.09745824      -0.56171083      -0.33384407        0      -0.35531485      -0.43379337       0.40796731       1.70866299       1.26200485       2.93841648
O        0.59339279       0.04178514       1.16893291        0      -1.49587055       0.00054705       0.51454566      -0.91900146       0.34681556       0.63066989
O        0.70731479       0.58054012      -0.92796504        0       0.35478282      -0.73635739      -0.59142045      -0.29795265      -0.64145565      -0.40681338
C       -0.18480919      -0.38314587       2.27627182        0       0.88781824       0.07094577      -0.70297533      -0.49810177       1.10882616       1.21090353
C        0.11790480       0.31317315      -2.18905210        0       0.76720946       1.00065035       0.91276279      -1.85666776       1.42350125      -1.66730690
H        0.50081283      -0.52887988       3.16355896        0       0.16174765       0.12441484       0.11749398      -0.80970412      -0.17494947      -1.18134332
H       -0.99130619       0.37122315       2.57026887        0       0.26613934      -0.12591758       0.15323862       1.17684937      -0.30254060      -0.29829735
H       -0.79898220      -1.19689691       1.93909299        0      -0.23234235      -0.08170387       0.13332027       0.12129164      -1.00205946       0.25153551
H        0.82173383       0.39293513      -3.04121518        0      -0.15884038      -0.07588541      -0.18674051      -0.01779026      -0.09114105       0.76182383
H       -0.51975018      -0.63449883      -2.23208618        0       0.03884525      -0.55056515      -0.36540089       1.28512883       0.98363370       0.16729200
H       -0.68493521       1.15580308      -2.35394812        0      -0.03620217       0.13663406      -0.10288184       1.21842384      -1.24411845       0.15214953
12
Properties=species:S:1:pos:R:3:molID:I:1:momenta:R:3:forces:R:3 Nmols=1 Comp=DMC(1) energy=-589.4928588867188 free_energy=-589.4928588867188 stress="-4.592233835865045e-06 -1.3809033589495812e-05 -3.1037050121085485e-06 -1.3809033589495812e-05 -8.680483006173745e-06 -1.492502974542731e-06 -3.1037050121085485e-06 -1.492502974542731e-06 -5.97555526837823e-06" pbc="F F F"
C       -0.09065535      -0.00311483      -0.04170649        0       0.31749369      -0.77859087      -0.71111733       3.69947052       0.96025372       1.49262226
O       -1.07207951      -0.57335568      -0.26293414        0       0.34037652       0.01103802       1.82640915      -3.58181000      -1.64657199      -0.41992989
O        0.49184922       0.07126738       1.16664630        0      -2.11535049       0.70453757      -0.98425495       1.24739194       0.73689038      -1.39117610
O        0.73311690       0.54110654      -0.97125001        0       0.77052020      -1.11520026      -0.25232774      -0.41689670       0.25590152       1.56927049
C       -0.14346443      -0.40222457       2.29377901        0      -0.01518568      -0.50165698       1.16733925       0.50884509       2.63080311       1.81253266
C        0.10426961       0.38637549      -2.18966008        0       0.31162099       1.05491723      -0.81567939       1.06311774       3.66276646      -2.62176538
H        0.62201294      -0.66502506       3.03531946        0       0.50487304      -0.13189932      -0.20347392       0.01920033       0.38914579      -0.12398999
H       -0.77477494       0.44882673       2.68402418        0       0.14997197       0.15639564      -0.07911575       0.37359041      -0.88581556       0.03122193
H       -0.70307534      -1.23915986       2.16076728        0       0.08125484      -0.08515600      -0.14933387      -1.89145374      -2.32029772      -0.79822254
H        0.92299301       0.46566736      -2.99971662        0       0.22579904       0.70392870       0.07838522      -1.19972134       0.94013619       0.85909021
H       -0.13473628      -0.58569787      -2.28261633        0      -0.08358083      -0.26572212       0.15892308      -1.77282906      -3.33945823      -0.30062187
H       -0.83038153       1.11180905      -2.29355203        0      -0.48779336       0.24740833      -0.03575381       1.95109499      -1.38375378      -0.10903171
12
Properties=species:S:1:pos:R:3:molID:I:1:momenta:R:3:forces:R:3 Nmols=1 Comp=DMC(1) energy=-589.4314575195312 free_energy=-589.4314575195312 stress="-3.115270146736293e-06 1.0140220183529891e-06 -8.253572559624445e-06 1.0140220183529891e-06 -7.360403742495691e-06 -5.164027697901474e-06 -8.253572559624445e-06 -5.164027697901474e-06 -6.000683697493514e-06" pbc="F F F"
C       -0.03144423      -0.03442511      -0.06728957        0      -0.13440577      -0.94629864      -0.53446334      -2.82713962      -1.41845202       0.50862944
O       -1.11277914      -0.58004373      -0.19787445        0      -0.55589769       0.49591129       0.34858894       0.52167952       0.28931081      -1.34205735
O        0.42746957       0.11088141       1.11685498        0       0.41212996       1.25009792       0.40511762       1.80963850       0.76806855       3.01632643
O        0.76269292       0.48102082      -0.97303848        0       0.02323083      -0.56761155      -0.19552665      -0.26512596       0.35103720      -0.46432716
C       -0.14421281      -0.44630329       2.38143282        0       0.55201056      -0.78566681       0.19849518       1.26693332       1.68721819      -2.24964046
C        0.12693717       0.45927014      -2.27653502        0       0.21191661       0.32445908      -0.43973063       0.86940324       3.02750397       1.37879276
H        0.79164450      -0.63808320       2.81818764        0       0.08084923      -0.33721889       0.07425676       0.90854937      -0.56786168       1.16140449
H       -0.64995365       0.32816963       2.92057196        0      -0.29187411      -0.27283777       0.59174248      -0.49706766       0.30665538       0.05204208
H       -0.68851196      -1.30420957       2.15831318        0      -0.01670372      -0.00099887       0.20394358      -1.10455728      -1.26434147      -0.24699454
H        0.83469411       1.09825322      -2.84572974        0      -0.13608208       0.30710136      -0.27707588      -0.56602669      -1.26906824      -0.32975230
H       -0.19101247      -0.50601680      -2.36295954        0       0.29881300       0.38139975      -0.52853377       0.10475530      -2.65115857      -1.47976995
H       -0.83302833       0.96651667      -2.20361376        0      -0.44398681       0.15166304       0.15318580      -0.22104144       0.74108768      -0.00465357
12
Properties=species:S:1:pos:R:3:molID:I:1:momenta:R:3:forces:R:3 Nmols=1 Comp=DMC(1) energy=-589.5012817382812 free_energy=-589.5012817382812 stress="-7.222620752145303e-06 2.3268362383532804e-06 -6.564118280039111e-07 2.3268362383532804e-06 -2.2765925677958876e-06 -1.8462868638380314e-06 -6.564118280039111e-07 -1.8462868638380314e-06 1.575724672875367e-05" pbc="F F F"
C       -0.04952110      -0.10170472      -0.04911850        0       0.47773378       0.33668597       1.18436371       0.39355016       1.46231484       1.61123347
O       -1.11926690      -0.59375963      -0.18701332        0      -0.79235510      -1.14904178      -0.16218409      -0.61606145      -0.77235806      -0.48788607
O        0.46050535       0.19901367       1.20150579        0       0.54916594       1.05994751       1.85629970      -0.13209435      -0.85196126      -0.13646205
O        0.72626402       0.44013538      -0.99693727        0      -0.53806973      -1.03170145      -0.89454946      -0.25175536      -0.37917820      -1.09260511
C       -0.08174765      -0.49122760       2.36520124        0       0.73718689      -1.18017302      -0.51502774      -0.50866699      -1.31648660      -2.18301249
C        0.09534619       0.55257647      -2.31401252        0      -0.57073153       0.89438896      -0.79498659       1.65747452      -0.53620017      -1.23442173
H        0.69220102      -0.92592127       2.93595894        0      -0.14922441      -0.32066024       0.08206773       1.26745605      -0.33326137       0.29815149
H       -0.67774496       0.03757613       3.03768138        0       0.00583318       0.14057997      -0.12183686      -0.74842083       1.85531449       0.61036074
H       -0.76122663      -1.31830156       2.06285818        0       0.00099713       0.24802573      -0.38071110       0.43572980       0.25929600      -0.37062365
H        0.60681512       1.21308129      -3.02544121        0       0.29804083       0.47023919      -0.27137800       0.93344188       0.59237146       0.94594669
H        0.08892608      -0.31916502      -3.04126594        0       0.24955084       0.61423639      -0.03401393      -0.44483507      -0.07464933       1.86761475
H       -0.80967657       1.04804303      -2.17622246        0      -0.26812775      -0.08252737       0.05195676      -1.98581862       0.09479834       0.17170405
12
Properties=species:S:1:pos:R:3:molID:I:1:momenta:R:3:forces:R:3 Nmols=1 Comp=DMC(1) energy=-589.1504516601562 free_energy=-589.1504516601562 stress="-2.7647581646306207e-06 1.138774194942016e-07 7.832813935237937e-06 1.138774194942016e-07 2.436965814922587e-06 6.417958502424881e-06 7.832813935237937e-06 6.417958502424881e-06 5.699470875697443e-06" pbc="F F F"
C       -0.06416501      -0.07029737       0.03522620        0      -0.97360970       0.38104626       0.50063033      -0.46465075       0.59626114      -1.27099454
O       -1.12533101      -0.63986885      -0.17208798        0       0.81655601       0.03228790       0.79905093       1.55863988       0.78331816       0.89925367
O        0.49559885       0.24082154       1.29657570        0       0.94665317       0.64629060       0.67275007       0.29558712      -0.95383942      -4.49759722
O        0.66173896       0.39587368      -1.02840157        0      -1.18876471      -0.66491110      -0.12020938       0.35888368       0.59902954       1.84026861
C       -0.05402490      -0.61476498       2.23701540        0      -0.58865454      -1.74420927      -2.09724351      -1.90436721       0.30354077      -0.40373147
C        0.10945036       0.70050729      -2.35603126        0       0.65367442       1.04734223       0.27567913      -1.31548679      -5.39836550       2.70820045
H        0.64346096      -1.18107300       2.79717954        0       0.07530820       0.01174395      -0.37829084       0.91198361      -0.35722309       0.53372014
H       -0.55575011       0.16479418       2.79564948        0       0.21656269      -0.22698913      -0.18453140      -0.83762467      -0.71658301       1.34487772
H       -0.73779898      -1.29619753       1.65093965        0      -0.02932236      -0.08279244      -0.29048294       0.36731184       0.53969073       1.02614772
H        0.62409716       1.51889185      -2.60026152        0      -0.02408254       0.57548848       0.56809855       1.82929218       2.64770150      -1.57017946
H        0.26421622      -0.30997782      -2.85610631        0      -0.06613015       0.24726925       0.45221089      -0.02263200       1.63462985      -0.33439988
H       -0.94280201       0.82929563      -2.20676896        0       0.16180958      -0.22256693      -0.19766166      -0.77693677       0.32183906      -0.27556595
12
Properties=species:S:1:pos:R:3:molID:I:1:momenta:R:3:forces:R:3 Nmols=1 Comp=DMC(1) energy=-589.1002197265625 free_energy=-589.1002197265625 stress="-2.4141081667039543e-06 2.263228964238806e-07 1.804621547307761e-06 2.263228964238806e-07 1.920125214383006e-06 4.907688889943529e-06 1.804621547307761e-06 4.907688889943529e-06 3.3875880944833625e-06" pbc="F F F"
C       -0.08947533      -0.00003741       0.01222186        0       0.79802793       1.49166644      -0.52711133      -0.93242931      -0.96104908       0.63801092
O       -1.10500657      -0.63936898      -0.11749519        0      -0.52526030       0.08650109       0.71846178      -0.39937127       0.53617984      -0.34081501
O        0.50505512       0.26551693       1.21126879        0      -0.90765745      -0.32993417      -2.36943294      -1.96706581      -2.01730299       0.52925450
O        0.63371165       0.34913099      -0.99231857        0       0.00402814      -0.65499443       0.90740690       2.03970551       1.72880459      -0.83892810
C       -0.10053783      -0.71444319       2.15465783        0      -0.11590405      -0.72230693       0.05387808       0.53243023      -0.99010962       0.21351120
C        0.16591085       0.78351321      -2.23906031        0      -0.15910466       0.42905597       1.69959195      -2.11696482      -4.68241692      -1.44404447
H        0.73304277      -1.28008015       2.58912061        0      -0.06340743       0.02335495      -0.31252123       0.32078815      -0.06419528      -0.39107791
H       -0.57393287      -0.35791199       3.08819282        0       0.06923816      -0.72186824       0.12874290      -0.21109414       0.82784963      -0.91586781
H       -0.77816312      -1.47337806       1.59736022        0       0.05711468      -0.26480287       0.11497684       1.01868558       1.45207477       0.98785031
H        0.55074194       1.65820834      -2.53206535        0       0.12789614      -0.01189030      -0.33354309       2.13024807       3.01885414      -0.76691222
H        0.38011276      -0.04823052      -3.07951574        0       0.33279525       0.54586120      -0.20332572      -0.16672817       1.56468046       1.77783275
H       -0.91482438       0.94403207      -2.30502276        0       0.38223358       0.12935718       0.12287602      -0.24820423      -0.41336918       0.55118573
12
Properties=species:S:1:pos:R:3:molID:I:1:momenta:R:3:forces:R:3 Nmols=1 Comp=DMC(1) energy=-589.1897583007812 free_energy=-589.1897583007812 stress="1.1280704939053976e-06 -2.296777438459685e-06 -1.4027702491148375e-05 -2.296777438459685e-06 2.2930898069262184e-07 1.4892864328430733e-06 -1.4027702491148375e-05 1.4892864328430733e-06 -5.227219389780657e-06" pbc="F F F"
C       -0.15046516       0.03807846      -0.00633610        0      -2.04065305       0.09340541      -0.48210333       2.67117214      -0.31111598      -0.40685368
O       -1.13663544      -0.58910123      -0.08953429        0      -0.31860271       1.35674872       0.17739321      -2.83902431      -0.53764468      -2.18657613
O        0.41796527       0.21355921       1.15505282        0      -1.65073180      -1.47599592       0.32565330       0.00707023      -0.31131017       2.51542425
O        0.72600267       0.37668160      -1.00630808        0       2.30055225       0.94440533      -0.12974833      -0.56297952      -0.24073073       2.60291600
C       -0.05679345      -0.79823275       2.15158669        0       1.57503667      -1.28562791       0.08567544       1.30037665      -0.37839383      -1.11493230
C        0.16154241       0.79689116      -2.16641183        0      -0.19731746       1.19357639      -0.04484813       1.10411620      -0.48394316      -2.84347820
H        0.91731297      -1.35931900       2.25873380        0       0.04657145       0.03185239      -0.04939139      -1.01839232       0.48740014       1.03260028
H       -0.60552166      -0.40875200       3.03884553        0       0.38717484       0.49957843      -0.24404323       0.96903384       0.11409301      -0.66739827
H       -0.72026184      -1.49422807       1.59777081        0      -0.13304548      -0.33735088      -0.37409989       0.15212652       0.48760724       0.44060218
H        0.66176068       1.73622663      -2.38508762        0      -0.20566600      -0.11832077       0.60869470      -0.53428763       0.71492094      -0.06886467
H        0.62067353       0.15177496      -3.03370397        0       0.12408623      -0.49098481       0.03442893      -1.48119092       0.54271483       1.26611114
H       -0.92632067       0.84745829      -2.06805335        0       0.11259497      -0.41128659       0.09238879       0.23197883      -0.08359768      -0.56955075
12
Properties=species:S:1:pos:R:3:molID:I:1:momenta:R:3:forces:R:3 Nmols=1 Comp=DMC(1) energy=-588.9622802734375 free_energy=-588.9622802734375 stress="8.6102827481227e-06 -9.029736247612163e-07 -8.714898740436183e-07 -9.029736247612163e-07 4.699635155702708e-06 -7.449950203408662e-07 -8.714898740436183e-07 -7.449950203408662e-07 -2.8507963634183398e-06" pbc="F F F"
C       -0.16735614       0.08187455      -0.01711262        0       0.60858315       0.19529155       0.07284407      -1.07200551      -3.38971615      -0.20542580
O       -1.25721242      -0.52029288      -0.12676791        0      -2.33892510       1.58747869      -1.40563588       2.62596107       2.33220911      -1.52613974
O        0.33005183       0.13065689       1.20487619        0      -0.58294993      -1.05906511       0.53762650       2.72862124       1.76589322      -1.45210385
O        0.81335808       0.38912319      -0.96737962        0      -0.16604701       0.54335061       1.79118306      -2.66721010       0.42827678       0.59570539
C        0.07420146      -0.88025743       2.10085513        0       2.27453891      -0.46185400      -0.35920625       1.52100646       0.05918586       2.17832303
C        0.20410986       0.82998340      -2.19439667        0       0.58014318       0.27547234      -0.48077273      -0.77303869      -0.68937278       0.12661773
H        1.01061735      -1.46837067       2.54217613        0      -0.12273448      -0.24717709       0.37915151      -1.56078458       1.14129591      -1.35265779
H       -0.25656407      -0.21611109       2.88388098        0       0.13655840      -0.35849383       0.15226438      -0.62095106      -0.73647159       1.38515663
H       -0.65579661      -1.49741193       1.66989798        0      -0.29258163      -0.41897035       0.06615812      -1.02049661      -1.26727986      -0.07734947
H        0.32858298       1.92421031      -2.30794612        0      -0.48088208      -0.22656546      -0.28586703       0.35408393      -0.75414062      -0.29838032
H        0.42264698       0.14721968      -3.04777369        0       0.23389019       0.06463648      -0.55072218       0.71367264       0.84179711       0.48785117
H       -0.86616845       0.63591618      -2.06364621        0       0.15040646       0.10589589       0.08297649      -0.22885883       0.26832283       0.13840258
12
Properties=species:S:1:pos:R:3:molID:I:1:momenta:R:3:forces:R:3 Nmols=1 Comp=DMC(1) energy=-589.5089111328125 free_energy=-589.5089111328125 stress="5.254908955976134e-06 -3.242342472731252e-06 -1.6966648672678275e-06 -3.242342472731252e-06 1.275782665288716e-06 -6.276342446653871e-06 -1.6966648672678275e-06 -6.276342446653871e-06 8.034937309275847e-06" pbc="F F F"
C       -0.20613778      -0.00747724      -0.01666832        0      -1.36425511      -1.84704687       0.52833133       1.26435590       0.58481413       0.50962865
O       -1.32532573      -0.36230817      -0.22294447        0      -0.33394718       3.19772592      -1.87131252       0.35967588      -0.07277441      -0.22471192
O        0.37637281       0.09501021       1.21079304        0       1.33269899      -0.71562848      -0.09827082       0.29388714      -0.77946603      -0.09820351
O        0.74538271       0.43288695      -0.89156265        0      -2.25713463       1.17506313       0.27155783      -1.66246259       0.77709746      -1.33477795
C        0.17656220      -0.94982726       2.14270160        0       0.55460388      -0.93217088       1.52248812       1.68389344       0.83160508       2.29863310
C        0.21411685       0.80957663      -2.20823276        0       0.08400744      -0.05875976       0.07026398      -0.58532190       0.92060244       0.04821593
H        1.12792594      -1.54218859       2.39309919        0       0.70375744      -0.03244452      -0.57253441      -0.91634214       1.12421632      -0.61282670
H       -0.21431696      -0.56020620       3.12275024        0       0.31153184      -0.02107849       0.04215565       0.51242691       0.15121338      -0.84028018
H       -0.52122074      -1.63725500       1.84635175        0      -0.04331272      -0.34509739       0.00544276      -1.82521665      -1.64408493      -1.19559896
H        0.27532203       1.89636395      -2.55549522        0       0.24787479      -0.10888475       0.18302241       0.04694331      -0.70215517       1.55090475
H        0.79133953       0.39306041      -3.03292757        0       0.58652389      -0.16074833       0.18747630      -0.20225081      -1.03888726       0.44454351
H       -0.88588113       0.58078321      -2.15153557        0       0.17765140      -0.15093000      -0.26862058       1.03041136      -0.15218103      -0.54552674
12
Properties=species:S:1:pos:R:3:molID:I:1:momenta:R:3:forces:R:3 Nmols=1 Comp=DMC(1) energy=-588.4072875976562 free_energy=-588.4072875976562 stress="-5.806187459711509e-07 1.3942337773187319e-06 1.75310788108618e-06 1.3942337773187319e-06 1.8595593473946792e-06 4.517941761150723e-06 1.75310788108618e-06 4.517941761150723e-06 -5.195711310079787e-06" pbc="F F F"
C       -0.19567784      -0.06373085       0.03895344        0       0.18616604       0.68664336       0.37599856      -3.89921212       2.09192443      -3.19158483
O       -1.38121808      -0.18218851      -0.33198617        0      -0.71805881       2.35009837      -0.87905557       2.09870768      -1.17219150       2.27115273
O        0.42361935       0.01200748       1.17638710        0       0.05910081      -2.20859183      -0.74406211      -1.36605895      -1.17960572       0.88186049
O        0.57561663       0.50076764      -0.89858491        0      -2.60742514       0.97680235       0.93738341       2.24400663      -1.03077304       3.35781217
C        0.25059143      -1.07222414       2.24214939        0       1.14497293      -1.00353356       0.86938488       2.94770312       4.10876656      -0.89735782
C        0.25867194       0.79077255      -2.18333089        0       0.53678636       0.07162924       0.20058022      -0.94702238       0.44786692      -1.32765102
H        1.26834009      -1.31281985       2.03133116        0       0.51002348      -0.14077124       0.02844444       1.07314205      -1.69616175       1.31227517
H        0.18863008      -0.49280141       3.16629392        0       0.43306552      -0.03674086      -0.19839554      -0.46634987      -0.50701845      -0.13402373
H       -0.39648118      -1.79865730       1.96523937        0       0.04364646      -0.20059169       0.19442514      -2.20523238      -1.70794594      -0.52156705
H        0.45882675       1.91738328      -2.09228021        0       0.13020978      -0.19436326       0.00496664      -0.55940902      -1.41322672      -1.82576263
H        0.96925128       0.14903415      -2.72547929        0       0.16315960      -0.18655652      -0.12489167       0.11727875       0.99617153      -0.68521732
H       -0.76832782       0.41256601      -2.53451061        0       0.11835325      -0.11402478      -0.66477843       0.96244746       1.06219363       0.76006413
12
Properties=species:S:1:pos:R:3:molID:I:1:momenta:R:3:forces:R:3 Nmols=1 Comp=DMC(1) energy=-588.5623779296875 free_energy=-588.5623779296875 stress="-2.6610230634105392e-05 -6.171048426040215e-06 4.036136942886515e-06 -6.171048426040215e-06 5.082275720269536e-07 -4.3621939767035656e-06 4.036136942886515e-06 -4.3621939767035656e-06 9.420560672879219e-06" pbc="F F F"
C       -0.32149750       0.01663973       0.00418117        0      -2.38514450       1.03162860      -0.06589868       4.50578451      -0.04702628       2.61260653
O       -1.40238514      -0.08869984      -0.30567336        0      -1.58449334       0.65139175       0.88683998      -7.81855106      -1.97909200      -0.27493286
O        0.40429859      -0.14926367       1.15107722        0      -0.63710862      -3.10938365       0.10432482       0.66107273      -0.33968756      -0.21528384
O        0.49060839       0.55507154      -0.82279611        0       0.71677453       1.13521973      -0.00178287       4.18587065       1.93566632      -2.78411913
C        0.43883452      -1.11495949       2.24199442        0       2.50109213       0.14028623      -0.44439976      -1.71098554       3.74314237       0.86080003
C        0.31704697       0.76881296      -2.24362763        0       1.44696585       0.44629836      -1.02826054      -0.35431895       2.73870611       0.03981966
H        1.29134637      -1.66544205       2.41838602        0      -0.08688223      -0.33016117       0.55690422       2.20699739      -0.51901531      -0.42955032
H        0.25453317      -0.46763852       3.16218431        0      -0.07899711      -0.11010856      -0.10906054       0.42488584      -0.64690745      -0.92280781
H       -0.34357624      -1.77384812       2.23781043        0       0.18279612       0.29714124       0.30133168      -2.27104473      -1.64219511      -0.53405356
H        0.54174296       1.88974182      -2.57245874        0      -0.06552152      -0.00218919      -0.36874999      -0.82979363      -1.58545089       1.36338055
H        1.12963546       0.34090752      -2.74679209        0       0.59172991      -0.06512663       0.06096614       0.97600675      -1.40441561      -0.43123788
H       -0.63826283       0.51319379      -2.70889795        0      -0.60121085      -0.08499697       0.10778554       0.02407664      -0.25372446       0.71537817
12
Properties=species:S:1:pos:R:3:molID:I:1:momenta:R:3:forces:R:3 Nmols=1 Comp=DMC(1) energy=-588.2183837890625 free_energy=-588.2183837890625 stress="4.666781933337916e-06 8.384197371924529e-07 3.309705562060117e-06 8.384197371924529e-07 -4.123603503103368e-07 -5.757899089076091e-06 3.309705562060117e-06 -5.757899089076091e-06 9.484924703428987e-06" pbc="F F F"
C       -0.36602912       0.05338819       0.04379357        0      -0.56801287       0.08934962       0.33077010      -2.56673074      -0.55756295      -1.93611717
O       -1.60201539      -0.08707206      -0.22931143        0      -2.09654201      -0.11306864       1.65349982       5.35101414       0.46708494       1.37449622
O        0.37725801      -0.31303845       1.11491617        0       0.10527544      -1.78850462      -1.76721936       1.12211859       2.17762113      -2.38143778
O        0.56234636       0.66917537      -0.86602269        0       0.65739774       2.04346758      -1.15689912      -0.48484206      -0.64856780       2.39601517
C        0.51394286      -1.09213769       2.24036215        0      -0.69389650      -0.42859306       0.62162007      -1.86994004       0.21299613       2.39846849
C        0.45128108       0.79553832      -2.31916066        0       1.83172587      -0.32139372       0.27864601      -2.17045450       3.61659288       3.94712090
H        1.42581356      -1.62133572       2.46627370        0      -0.05966478       0.53758118      -0.40633187       0.58016300       0.17528513      -1.07976913
H        0.37651620      -0.47129185       3.18936230        0       0.33177976       0.14959272       0.04650136      -0.03243044      -0.27616191      -1.24412167
H       -0.28359055      -1.80138304       2.23914776        0       0.59893214       0.03584432      -0.09308574      -0.71775460      -0.91843021       0.21941489
H        0.46019601       1.89069233      -2.53854213        0       0.19253193       0.33555711       0.31008743       0.28719449      -0.94669151      -0.06704531
H        1.16816479       0.22169257      -2.66905197        0      -0.21041002      -0.07886104      -0.02007712       3.49719477      -2.24763775      -2.15890002
H       -0.48128067       0.40592033      -2.41039037        0      -0.08911671      -0.46097172       0.20248846      -2.99553347      -1.05452776      -1.46812487
12
Properties=species:S:1:pos:R:3:molID:I:1:momenta:R:3:forces:R:3 Nmols=1 Comp=DMC(1) energy=-588.566162109375 free_energy=-588.566162109375 stress="-6.5548277916605e-07 -2.1193392285567825e-07 -6.125160325609613e-06 -2.1193392285567825e-07 2.1392752387328073e-06 -4.366662778920727e-06 -6.125160325609613e-06 -4.366662778920727e-06 1.2093917575839441e-05" pbc="F F F"
C       -0.46155502       0.06220319       0.02377915        0       0.35087338       0.22898521      -0.37039844       5.63377047       0.07518190       0.68270874
O       -1.59816567      -0.11031312      -0.09755284        0       0.69908888      -0.97661156       2.41164263      -1.61733830       0.14261746      -0.70799530
O        0.41593461      -0.36148925       0.96957708        0       0.39872333       0.11456476      -2.71809428      -0.87807763       0.51655042      -0.41834348
O        0.57059957       0.75126748      -0.85091425        0      -1.15673096       0.04036816       1.32601700      -2.13580108      -1.16783822       0.87644774
C        0.46958080      -1.09949286       2.26483133        0       0.30038201      -0.24918260      -0.87608041       1.88623381       1.81171393      -1.54409957
C        0.48019638       0.77534591      -2.25788398        0      -0.34920264      -0.97183708       1.00348516       0.74087477       0.96490711       0.23967606
H        1.55936034      -1.33604319       2.05875525        0      -0.44448821       0.15257411      -0.24891092      -1.18502986      -0.16785599       1.31231570
H        0.38330702      -0.35692706       3.09950048        0      -0.25861109       0.16689790       0.08240686      -0.14061318      -0.90816593      -0.83111483